<simulation verbosity='high'>
   <prng>
      <seed>12345</seed>
      <state shape='(624)'>
       [ 1445013039, 931082627, 543099226, 1775884430, 1564130326, 
         776067935, 2635327173, 3059026271, 3341131719, 337694733, 
         3936370472, 995054413, 3419581529, 1773301225, 3324265262, 
         4235969297, 3953701803, 2893195514, 990506747, 3245193578, 
         3046107147, 2502849812, 272116056, 1565149154, 3357213451, 
         415850670, 2028599157, 3729317248, 2712205733, 1496975972, 
         2440043018, 54118979, 3097254562, 2442857747, 30555792, 
         1149826409, 112519910, 2193089273, 4151505827, 248898200, 
         4195013229, 302787269, 1331321739, 3567555514, 18904628, 
         2314340421, 4258606347, 2720281896, 2618468004, 1009567542, 
         3177809946, 1666135675, 689584040, 2168321464, 663196466, 
         3018005055, 3719214995, 3852516597, 1483424872, 3802429596, 
         3448903384, 3463429537, 2773993726, 364606654, 927980196, 
         4052946591, 3160663542, 3032058399, 1663577513, 934319245, 
         4216214119, 2704278604, 2001319182, 4174841793, 1710465957, 
         875443870, 1939825596, 3975112944, 2054723592, 2427807691, 
         276486201, 4130956259, 3960130952, 865213700, 2352328412, 
         3596989468, 2481694975, 1868620438, 2213824232, 4035346453, 
         231380412, 2383726469, 2450680446, 1291610428, 3671317262, 
         564403424, 2340292071, 3130271964, 4252872549, 4190665803, 
         2137158722, 2820354786, 1390859189, 49693014, 3419553007, 
         2552795699, 3029080531, 3986890017, 2266917276, 1343457397, 
         1681121908, 3260545287, 2856142693, 1053785499, 679058382, 
         517130451, 271580342, 4084420146, 730116816, 3490101838, 
         473377770, 4012064341, 956477136, 2604591084, 2176333885, 
         4184603028, 4045829542, 2169175250, 538281811, 3027370186, 
         1408258387, 1658303757, 26295480, 3215602434, 284679783, 
         994828337, 1059886272, 2442186818, 3359755088, 1696475018, 
         2428401259, 4129409399, 4049304555, 2503040578, 2983567404, 
         2803961465, 2828086938, 3260975588, 1504778777, 4248019752, 
         648047885, 1387774219, 57021331, 4095311835, 4059274464, 
         1604982214, 1841932938, 4258309234, 2231121699, 3069073315, 
         3624279962, 1202277927, 720210128, 1366667526, 312096999, 
         682471579, 4013631561, 3428661055, 3261515842, 3904220634, 
         2536367259, 1529981666, 3408591760, 1397923028, 1620646338, 
         2361522064, 1502026658, 2954267452, 2149379922, 2401279935, 
         3396536519, 1550909292, 2838654928, 3864715042, 2445066218, 
         2419878304, 3882226234, 1938803766, 2317265381, 4235099107, 
         3495296949, 1148765778, 1931058338, 567059882, 1095107867, 
         4144814368, 171026016, 2933251133, 1803418827, 3943979705, 
         4039085262, 2003031050, 1050629996, 55602088, 1876108053, 
         1847563146, 1806752418, 2026130477, 3590957542, 1557278585, 
         1905701131, 1517663607, 901382943, 1607026713, 2491928116, 
         3864779052, 1400585056, 931780161, 3610609934, 3361392304, 
         2869221367, 2315618269, 3463581895, 1291688245, 1502686098, 
         3250055159, 1740814047, 3709373938, 407113269, 187435228, 
         2726902446, 2572354307, 969485486, 729578488, 1581472388, 
         3453000656, 502737274, 3924243809, 726539968, 721300586, 
         1284299123, 1496465826, 3683512456, 183009285, 2817898844, 
         398031241, 1520439766, 3780904121, 1380705645, 1247468537, 
         994955112, 1113558551, 1980011601, 3159190162, 4073530758, 
         96392307, 3015034333, 933523605, 1769866010, 1053281033, 
         956351101, 3251123282, 623451928, 1702959664, 2618649490, 
         3405436059, 2151295687, 2897449167, 3417938241, 966027288, 
         3525469159, 3838034039, 1950097722, 2156576365, 1650215587, 
         130963301, 2142313190, 3697281253, 2054138863, 776718294, 
         1175820806, 412998911, 1344455897, 3642798517, 1910988820, 
         3711003217, 2392094396, 3214634588, 3306491620, 862345174, 
         4278662167, 2412923411, 1732206321, 2662534077, 1902517428, 
         2039369824, 1049513979, 3196902471, 444848373, 1567867094, 
         1890797263, 3395591827, 100801782, 789119722, 2364024742, 
         4202427023, 3838725322, 3985139766, 1702411145, 131556006, 
         144780999, 2511269846, 3315647970, 4037046816, 192256808, 
         3528447256, 2277987637, 1217561778, 2252949198, 3027373192, 
         3141629050, 2189350775, 686796250, 3917810832, 3620772425, 
         3975580097, 1336807915, 4185924265, 1868727264, 2794991743, 
         3819753719, 313282122, 2336554064, 2903016196, 2219674469, 
         484798738, 324707120, 1742881846, 3839586039, 13908237, 
         3654089346, 1654373828, 1945106343, 959739410, 2539937326, 
         1321237477, 3310693699, 4021491796, 3933374090, 3181011254, 
         3114563006, 273393001, 1472697875, 1093743709, 2296873963, 
         189250851, 2497700078, 3794636703, 1645041981, 3363676747, 
         2439494968, 2686321075, 1809615909, 2975263630, 1028098331, 
         850151104, 1385649537, 1749413555, 1120313413, 566273859, 
         619715237, 216394043, 2889775316, 2640681086, 2579935164, 
         182018890, 3710620331, 3382283016, 4230865196, 789204580, 
         2157839735, 1002685933, 256999967, 2907360687, 4009969814, 
         2115869482, 1874093765, 1207774279, 3882825443, 3804752640, 
         1134781654, 3651325606, 4131207018, 3942551540, 2180160546, 
         4091137702, 1291487148, 1799584784, 1055807895, 3981409734, 
         2668443973, 1899681769, 2406088126, 707632849, 3836140611, 
         629053273, 3730564143, 1276156410, 1317097284, 2482155249, 
         111426511, 3858576198, 144436912, 2531714890, 1317763952, 
         2651059160, 471847916, 2896559415, 2064545767, 2488111238, 
         734825576, 2734926191, 1269729976, 3871556791, 2179186099, 
         2804076374, 161584248, 475907528, 1393946151, 3358118933, 
         1463156195, 749938578, 1748603478, 343788191, 292650603, 
         3688578564, 1616016457, 1034304637, 4108032154, 4025961895, 
         1968527072, 3903323814, 763793757, 3707243793, 2173684901, 
         1058354930, 2424601846, 1967688472, 79703412, 3281766746, 
         1839428404, 154957898, 3133442170, 116161905, 2771208100, 
         2284771451, 1442881510, 2899772120, 2380881105, 4000341155, 
         3417416598, 3426273547, 3847762589, 3093112703, 434125941, 
         2637548222, 715687753, 1710537458, 3813375156, 3285269884, 
         2320946138, 14676844, 913208427, 3255953290, 2685033827, 
         1875157350, 4282344203, 455740608, 3155324290, 3165370257, 
         3628155438, 660837819, 1099358707, 2694057451, 631138874, 
         4246699097, 3594657378, 311286352, 2565177199, 3766295788, 
         1601840469, 332749119, 2876394084, 722843891, 3028909232, 
         2258348330, 1084938209, 2687116090, 521336185, 3864711829, 
         4145966509, 3957237900, 858460788, 1482070863, 3342477106, 
         501250564, 3876959977, 1873022402, 3713133272, 2896862317, 
         3730360239, 680210953, 2559002545, 3082194544, 2164846890, 
         1039027648, 1286442650, 3767065844, 1390160936, 1114103378, 
         2917630356, 980575923, 3251920164, 3723208849, 2876445045, 
         2291274542, 293621187, 216992658, 3877967289, 3680238025, 
         2289848896, 2381243755, 2713997029, 3505526645, 792396590, 
         1680331354, 308361339, 2719307467, 127163435, 705844389, 
         1014066240, 580845886, 2463783482, 828475305, 2382270503, 
         2121741537, 2879163266, 2844732166, 1819608020, 3033485326, 
         1061332020, 3475374545, 2738044168, 1717870198, 1854745552, 
         2302033448, 1491848154, 3104609293, 4316261, 391222740, 
         619264665, 3857840384, 4101914398, 978638333, 1426017270, 
         1026469687, 4272275156, 2758209636, 3809502263, 4048721691, 
         2349792611, 205727178, 2065923369, 379710991, 1970384975, 
         2471550043, 2925628200, 2789137138, 1621998716, 3129458733, 
         1506677703, 644848287, 1065876533, 2028327580, 2892797065, 
         1004333456, 3135185255, 2211459806, 1003301049, 1662233970, 
         2622947235, 2830070425, 3334989081, 3899775074, 782666093, 
         732029160, 1496928141, 1205613333, 1425224492, 1275278671, 
         2828423170, 2604275834, 171327979, 3979399901, 1894915216, 
         2754483011, 2529091616, 1195934556, 2576075996, 378748185, 
         2525521572, 1299173513, 2022123176, 2321220452, 2056889472, 
         2036204266, 622859526, 3868237262, 2967782271, 45948431, 
         1602093145, 3415793683, 4110891176, 3202524260 ]
      </state>
      <set_pos>112</set_pos>
   </prng>
   <output prefix='simulation'>
      <properties shape='(5)' stride='200'> [ step, time{picosecond}, temperature{kelvin}, potential{kiloj/mol}, density{g/cm3} ] </properties>
      <trajectory filename='pos' stride='200' cell_units='angstrom'>positions{angstrom}</trajectory>
      <checkpoint stride='10'>40001</checkpoint>
   </output>
   <step>400000</step>
   <total_steps>400000</total_steps>
   <ffsocket mode='unix' name='dmff'>
      <address>unix_dmff</address>
   </ffsocket>
   <system>
      <forces>
         <force forcefield='dmff'>
         </force>
      </forces>
      <ensemble>
         <temperature>  8.77682833e-04</temperature>
         <pressure>  3.44386184e-09</pressure>
         <eens>  5.13564802e+01</eens>
         <hamiltonian_weights shape='(1)'> [   1.00000000e+00 ] </hamiltonian_weights>
         <time>  8.26827460e+06</time>
      </ensemble>
      <motion mode='dynamics'>
         <dynamics mode='npt'>
            <thermostat mode='langevin'>
               <ethermo> -5.09600421e+01</ethermo>
               <tau>  4.13413730e+02</tau>
            </thermostat>
            <barostat mode='isotropic'>
               <thermostat mode='langevin'>
                  <ethermo> -5.88922743e-02</ethermo>
                  <tau>  4.13413730e+03</tau>
               </thermostat>
               <tau>  4.13413730e+03</tau>
               <p shape='(1)'> [  -4.74993599e+02 ] </p>
            </barostat>
            <timestep>  2.06706865e+01</timestep>
            <nmts shape='(1)'> [ 1 ] </nmts>
         </dynamics>
      </motion>
      <beads natoms='1536' nbeads='1'>
         <q shape='(1, 4608)'>
          [   3.38396602e+00,   4.30738909e+01,   1.01607576e+00,   4.06442110e+00,   4.47595883e+01, 
              6.24035738e-01,   4.52941276e+00,   4.17997811e+01,   4.15527681e-01,   1.83652228e+01, 
              2.55508628e+01,   1.42330597e+01,   1.77407235e+01,   2.41760108e+01,   1.51987667e+01, 
              1.84922640e+01,   2.71534704e+01,   1.50247041e+01,   5.33198846e+01,   2.53155952e+01, 
              1.29056301e+01,   5.16087347e+01,   2.52947982e+01,   1.23461059e+01,   5.41458745e+01, 
              2.38224860e+01,   1.21700166e+01,   2.68318063e+01,  -2.06903455e+00,   2.83757858e+01, 
              2.80311009e+01,  -2.76309581e+00,   2.96959086e+01,   2.78186469e+01,  -5.99062066e-01, 
              2.78684847e+01,   3.48717055e-02,   2.90023648e+01,   4.00203161e+01,  -1.14518095e+00, 
              3.04759690e+01,   3.99795871e+01,   1.28219972e+00,   2.93956573e+01,   4.12438320e+01, 
              3.18647133e+00,   1.80139545e+01,   4.18075533e+01,   3.27317986e+00,   1.75281536e+01, 
              4.00154086e+01,   1.61271731e+00,   1.91308365e+01,   4.20346239e+01,   2.20119436e+01, 
              1.76851976e+01,   2.64649567e+01,   2.24235628e+01,   1.63948164e+01,   2.77049972e+01, 
              2.12006891e+01,   1.90036717e+01,   2.74282920e+01,   4.20626818e+01,   1.34393450e+01, 
              4.28898255e+01,   4.13525877e+01,   1.17718653e+01,   4.28107976e+01,   4.16652194e+01, 
              1.41625629e+01,   4.12643320e+01,   1.00072595e+01,   2.52670390e+01,   3.43529252e+01, 
              8.86633673e+00,   2.56293630e+01,   3.57650694e+01,   1.08141956e+01,   2.36780743e+01, 
              3.49987668e+01,   5.32215185e+00,   3.79143821e+01,   2.27049035e+01,   6.50626459e+00, 
              3.93352204e+01,   2.26616185e+01,   6.18436572e+00,   3.68432711e+01,   2.15274794e+01, 
              4.22396832e+01,   3.18488723e+01,   1.78998179e+01,   4.08437803e+01,   3.29060000e+01, 
              1.86176451e+01,   4.16160255e+01,   3.04306101e+01,   1.71024799e+01,   1.25785478e+01, 
              1.32363759e+01,   1.64989083e+01,   1.26425207e+01,   1.39945145e+01,   1.81186320e+01, 
              1.11904560e+01,   1.39440682e+01,   1.54983097e+01,   2.82985954e+01,   2.37338304e+01, 
              4.22868476e+01,   2.97473334e+01,   2.44367717e+01,   4.13150180e+01,   2.69566653e+01, 
              2.34504814e+01,   4.10613885e+01,   2.42386078e+00,   2.68268627e+01,   1.71212657e+01, 
              1.63645110e+00,   2.85341749e+01,   1.72973969e+01,   4.24476722e+00,   2.71227593e+01, 
              1.69002023e+01,   3.22324165e+01,   3.79635188e+01,   1.47664011e+01,   3.38912477e+01, 
              3.72920820e+01,   1.42522285e+01,   3.14309875e+01,   3.88449094e+01,   1.32911172e+01, 
              1.23381550e+01,   2.03436359e+01,   4.86363516e+00,   1.14381192e+01,   1.90937583e+01, 
              3.73665583e+00,   1.29664510e+01,   2.16627753e+01,   3.66740163e+00,   3.46956283e+01, 
              2.72904773e+01,   5.81936435e+00,   3.41027710e+01,   2.83079291e+01,   7.22258545e+00, 
              3.53630997e+01,   2.85924311e+01,   4.72262326e+00,   3.68452817e+01,   3.64539243e+01, 
              1.28833066e+01,   3.71660154e+01,   3.46039181e+01,   1.32359307e+01,   3.76617948e+01, 
              3.77460170e+01,   1.39264892e+01,   4.30607905e+01,   3.74568972e+01,   3.78668961e+01, 
              4.40306701e+01,   3.89428115e+01,   3.82771420e+01,   4.35277155e+01,   3.70727187e+01, 
              3.60255777e+01,   7.25551744e+00,   3.31016512e+01,   2.00035679e+01,   8.86141832e+00, 
              3.39102720e+01,   1.96836370e+01,   7.01691205e+00,   3.18449126e+01,   1.86564191e+01, 
              2.28951558e+01,  -1.85034241e+00,   5.37197264e+00,   2.36503893e+01,  -3.48653298e+00, 
              4.74937218e+00,   2.23812931e+01,  -2.32515678e+00,   7.04958742e+00,   4.17544614e+01, 
              3.02246624e+01,   8.34800757e+00,   4.21161006e+01,   3.07317965e+01,   1.00918595e+01, 
              4.09068228e+01,   2.86329641e+01,   8.35709457e+00,   1.92058067e+01,   1.68399657e+01, 
              1.54299145e+01,   1.78462850e+01,   1.55354603e+01,   1.58037574e+01,   1.94082888e+01, 
              1.68212094e+01,   1.36075435e+01,   2.99576220e+01,   3.88268393e+01,   1.04015375e+01, 
              3.10341769e+01,   3.82377132e+01,   9.04267639e+00,   2.84614032e+01,   3.96846632e+01, 
              9.69138919e+00,   4.05599021e+01,   5.32114375e+00,   9.72954181e+00,   4.07208345e+01, 
              5.55675876e+00,   1.15410884e+01,   4.16297518e+01,   6.63658974e+00,   8.91417424e+00, 
              1.34444554e+01,   4.23788816e+01,   2.08140332e+01,   1.38329151e+01,   4.06824876e+01, 
              2.02167246e+01,   1.48757259e+01,   4.28299249e+01,   2.17833813e+01,   2.16063089e+01, 
              9.13044942e+00,   1.01588106e+01,   2.27408156e+01,   7.76803216e+00,   9.44402391e+00, 
              1.99158574e+01,   8.55420986e+00,   9.64614260e+00,   3.62515664e+01,   1.11759477e+01, 
              2.86664646e+01,   3.75442620e+01,   1.24288716e+01,   2.91474718e+01,   3.71580431e+01, 
              9.64329445e+00,   2.92623236e+01,   4.05110586e+01,   3.36537856e+01,   2.52114116e+01, 
              4.22969213e+01,   3.33980024e+01,   2.48438565e+01,   3.97146820e+01,   3.39210078e+01, 
              2.36091524e+01,   4.37849927e+01,   4.82977964e+01,   4.38967622e+01,   4.26293818e+01, 
              4.86149237e+01,   4.53345600e+01,   4.50472319e+01,   4.97570151e+01,   4.40163094e+01, 
              3.32870157e+01,   3.21084339e+01,   3.07445967e+01,   3.32811237e+01,   3.06477027e+01, 
              3.17616813e+01,   3.28880488e+01,   3.15539345e+01,   2.91026799e+01,   3.45590979e+01, 
              3.95183808e+01,   3.43866778e+01,   3.44693606e+01,   3.80187385e+01,   3.54927457e+01, 
              3.34553831e+01,   3.90286275e+01,   3.29790306e+01,   4.04367181e+01,   4.18048285e+00, 
              3.36029024e+01,   4.13920994e+01,   2.67850515e+00,   3.42300626e+01,   4.03617489e+01, 
              5.34011796e+00,   3.50606843e+01,   5.40843596e+01,   4.97140118e+01,   4.27034799e+01, 
              5.57672894e+01,   5.04448747e+01,   4.33000047e+01,   5.42390037e+01,   4.92953399e+01, 
              4.09549102e+01,   7.91919217e+00,   1.69302228e+01,   4.36182705e+01,   6.18659692e+00, 
              1.73130286e+01,   4.31931211e+01,   8.24598932e+00,   1.51267884e+01,   4.34140509e+01, 
              7.53747575e+00,   4.25172853e+01,   3.12160399e+01,   8.87504546e+00,   4.27722276e+01, 
              3.00495304e+01,   6.11653582e+00,   4.25519905e+01,   3.00575823e+01,   2.36047379e+01, 
              2.45000794e+00,   3.04765495e+01,   2.43761753e+01,   3.84617366e+00,   2.95149644e+01, 
              2.41586490e+01,   8.52996622e-01,   2.97952263e+01,   1.42599508e+01,   1.33229964e+01, 
              3.95550500e+01,   1.51499496e+01,   1.27793688e+01,   4.10566570e+01,   1.54608471e+01, 
              1.43382809e+01,   3.87316998e+01,   4.86412038e+01,   9.63781584e+00,   1.37621695e+01, 
              4.70845189e+01,   9.68633877e+00,   1.47179181e+01,   4.95751467e+01,   9.57863789e+00, 
              1.53444927e+01,   3.99655599e+01,   1.70734421e+01,   1.88190485e+01,   4.12592768e+01, 
              1.84096451e+01,   1.88644746e+01,   3.98849679e+01,   1.62266222e+01,   1.70924857e+01, 
              1.33339909e+01,   5.08902736e+00,   2.60618536e+01,   1.51100358e+01,   4.96209776e+00, 
              2.63381569e+01,   1.24672165e+01,   3.44638261e+00,   2.63586546e+01,   1.40219695e+01, 
              2.89369321e+01,   4.40919695e+01,   1.44161600e+01,   3.00588178e+01,   4.54597053e+01, 
              1.22135576e+01,   2.87644089e+01,   4.40313455e+01,   4.81439254e+01,   1.87568197e+01, 
              1.44582343e+00,   4.68463181e+01,   1.87916842e+01,   1.86641140e-01,   4.88311203e+01, 
              1.70619455e+01,   1.37110192e+00,   3.99265344e+01,   3.37470339e+01,   3.49651512e+01, 
              3.85426232e+01,   3.26879211e+01,   3.44438341e+01,   3.91695492e+01,   3.52149112e+01, 
              3.56598097e+01,   2.69190838e+01,   3.59599003e+01,   1.94570152e+01,   2.77199366e+01, 
              3.44093271e+01,   1.88761942e+01,   2.73981638e+01,   3.61646248e+01,   2.12694466e+01, 
              8.64038817e+00,   2.16651958e+01,   9.62476392e+00,   9.63894781e+00,   2.15164640e+01, 
              8.12638624e+00,   8.75211415e+00,   2.00200004e+01,   1.02702732e+01,   4.85610984e+01, 
              1.05012869e+01,   5.30253625e+01,   4.73026540e+01,   9.50395410e+00,   5.21752145e+01, 
              5.00120467e+01,   9.42079941e+00,   5.32147035e+01,   2.30730869e+01,   3.58767819e+01, 
              4.27497612e+01,   2.16089479e+01,   3.46974742e+01,   4.31596674e+01,   2.44739981e+01, 
              3.48271727e+01,   4.22375634e+01,   3.31217255e+01,   7.66353166e+00,   2.26538250e+01, 
              3.27981187e+01,   9.05476714e+00,   2.14828933e+01,   3.49371222e+01,   7.30192164e+00, 
              2.28663443e+01,   3.33771291e+01,   1.20321256e+01,   1.94896047e+01,   3.22742365e+01, 
              1.33022667e+01,   1.88156707e+01,   3.46024089e+01,   1.29927876e+01,   2.05516024e+01, 
              3.37906289e+01,   3.52454837e+01,   2.43116190e+01,   3.38734743e+01,   3.53904923e+01, 
              2.24930039e+01,   3.46141258e+01,   3.68375466e+01,   2.47634850e+01,   3.94473107e+01, 
              4.03334458e+01,   1.53368561e+01,   3.88358006e+01,   4.19001578e+01,   1.49014289e+01, 
              4.03090874e+01,   4.04275208e+01,   1.69315636e+01,   3.35543764e+01,   4.04523929e+01, 
              1.97824319e+01,   3.32272015e+01,   3.98455864e+01,   1.81126148e+01,   3.25463819e+01, 
              4.19748889e+01,   1.99273901e+01,   5.68896269e+00,   3.89167744e+01,   4.44851885e+01, 
              5.04510833e+00,   3.78172993e+01,   4.30565031e+01,   6.53608602e+00,   3.76336590e+01, 
              4.55853854e+01,   1.70076631e+01,   1.16303021e+01,  -2.41211702e+00,   1.57384930e+01, 
              1.26314728e+01,  -1.47003889e+00,   1.86125784e+01,   1.19531612e+01,  -1.97195454e+00, 
              2.71860260e+01,   1.65907884e+01,   3.80380309e+01,   2.83269991e+01,   1.71813389e+01, 
              3.93888988e+01,   2.73104100e+01,   1.47271080e+01,   3.80604079e+01,   2.38756997e+01, 
              3.51760860e+01,   1.24463493e+01,   2.45296210e+01,   3.64343028e+01,   1.36510178e+01, 
              2.40209898e+01,   3.59686126e+01,   1.07103156e+01,   3.72173425e+01,   2.61858582e+01, 
              2.11291622e+01,   3.88759636e+01,   2.68799688e+01,   2.06360201e+01,   3.70778976e+01, 
              2.45945021e+01,   2.02552322e+01,   1.58882031e+01,   3.21842514e+01,   1.18506876e+00, 
              1.65216052e+01,   3.15760025e+01,   2.79749489e+00,   1.46391038e+01,   3.33631351e+01, 
              1.63715126e+00,   5.37501340e+00,   3.19646633e+01,   3.70580656e+01,   4.99151309e+00, 
              3.31739170e+01,   3.83314618e+01,   6.86457876e+00,   3.25415026e+01,   3.60975167e+01, 
              1.81734874e+01,   3.93124376e+00,   2.60239249e+01,   1.92776546e+01,   2.58123147e+00, 
              2.53663002e+01,   1.80509915e+01,   5.59671084e+00,   2.50521086e+01,   2.16145786e+01, 
              1.38036369e+01,   2.24095795e+01,   2.16725666e+01,   1.50734113e+01,   2.37368766e+01, 
              2.21435658e+01,   1.21983756e+01,   2.29670701e+01,   1.17328704e+01,   4.54281350e+01, 
              4.46245763e+01,   1.06246041e+01,   4.47352978e+01,   4.34650035e+01,   1.33857242e+01, 
              4.48038909e+01,   4.40671964e+01,   1.71954805e+01,   4.16767422e+01,   1.31106992e+01, 
              1.68645340e+01,   4.30844926e+01,   1.42860707e+01,   1.80124598e+01,   4.03538763e+01, 
              1.39172318e+01,   4.35507927e+01,   2.05034661e+01,   1.82391141e+01,   4.36596478e+01, 
              2.22722578e+01,   1.87876652e+01,   4.34305740e+01,   2.04422978e+01,   1.63915998e+01, 
              4.37145421e+01,   2.09538434e+01,   1.31703099e+01,   4.22563051e+01,   2.11567313e+01, 
              1.20827407e+01,   4.42716796e+01,   2.27345213e+01,   1.32641057e+01,   2.30939081e+01, 
              3.85183016e+01,   3.82180728e+01,   2.21704493e+01,   3.73060614e+01,   3.71888525e+01, 
              2.28554456e+01,   3.77913494e+01,   3.98790979e+01,   1.02977699e+01,   5.74132136e+00, 
              5.00150352e+01,   1.20123570e+01,   6.37584388e+00,   4.98163263e+01,   9.49634155e+00, 
              6.38038920e+00,   4.84581559e+01,   1.04481893e+01,   2.11340458e+01,   2.58868782e+01, 
              8.86352168e+00,   2.20501264e+01,   2.52366210e+01,   1.16327062e+01,   2.22527306e+01, 
              2.66969953e+01,   4.91797141e-01,   1.45329038e+00,   1.35309227e+01,  -6.55421863e-01, 
              8.93705611e-01,   1.49468983e+01,  -4.32872707e-02,   7.75333876e-01,   1.19528879e+01, 
              2.55133524e+01,   1.13320290e+01,   3.11757875e+01,   2.59484482e+01,   1.26689295e+01, 
              3.00334303e+01,   2.37384636e+01,   1.14200231e+01,   3.09162871e+01,   7.49457655e+00, 
              6.26129072e+00,   3.36849858e+01,   9.05608611e+00,   7.19786659e+00,   3.33414252e+01, 
              6.28141896e+00,   7.26632441e+00,   3.27031825e+01,   1.32629814e+00,   3.49302049e+01, 
              1.14505577e+01,   1.77780715e-02,   3.35940312e+01,   1.16035982e+01,   2.64760381e+00, 
              3.42108463e+01,   1.04566987e+01,   1.96134687e+01,   2.78389152e+01,   2.16709303e+01, 
              1.83136864e+01,   2.75423191e+01,   2.29447098e+01,   1.99971249e+01,   2.95627983e+01, 
              2.17217796e+01,   1.49648927e+01,   2.49572328e+01,   2.24278741e+01,   1.59121225e+01, 
              2.35012872e+01,   2.21519842e+01,   1.46687569e+01,   2.48367243e+01,   2.42420858e+01, 
              1.50598859e+01,   8.42429817e-01,   7.89986702e+00,   1.62598382e+01,   1.39656105e+00, 
              9.11218948e+00,   1.57612253e+01,  -7.87505529e-01,   7.36713067e+00,   1.15537035e+01, 
             -5.23834411e+00,   2.74912935e+01,   1.31069099e+01,  -5.24304418e+00,   2.84223392e+01, 
              1.12894530e+01,  -6.96277579e+00,   2.69211189e+01,   2.60490448e+01,   2.56967040e+00, 
              5.88093485e+00,   2.55758358e+01,   8.80828009e-01,   5.65138150e+00,   2.76494337e+01, 
              2.69278180e+00,   5.01405796e+00,   1.88064929e+01,   2.07169465e+01,   2.94277412e+01, 
              1.88230501e+01,   2.05710393e+01,   3.12218948e+01,   1.76033474e+01,   1.94109879e+01, 
              2.88030251e+01,   1.51110475e+00,   2.38624810e+01,   2.52495908e+01,   2.02247510e+00, 
              2.23446306e+01,   2.62415072e+01,   7.91747090e-01,   2.49515149e+01,   2.64952447e+01, 
              3.12641337e+01,   4.42724282e+01,   1.10897983e+01,   3.20357131e+01,   4.52160698e+01, 
              9.70739547e+00,   3.20569671e+01,   4.26459662e+01,   1.06824609e+01,   1.98324427e+01, 
              4.19141939e+01,   3.51531786e+01,   2.07588911e+01,   4.10482091e+01,   3.64450406e+01, 
              2.06878429e+01,   4.16641257e+01,   3.35908381e+01,   3.40926797e+01,   4.36150264e+01, 
              3.64241746e+01,   3.30516264e+01,   4.47086246e+01,   3.55033559e+01,   3.43329416e+01, 
              4.20828154e+01,   3.54327423e+01,   4.67703954e+01,   3.75229433e+01,   4.70579717e+01, 
              4.77081769e+01,   3.71469883e+01,   4.55292905e+01,   4.52927036e+01,   3.64711450e+01, 
              4.68122161e+01,   2.49696165e+01,   6.92128634e+00,   2.78857733e+01,   2.67779588e+01, 
              6.84594884e+00,   2.74742382e+01,   2.48485575e+01,   8.16692183e+00,   2.92877527e+01, 
              1.22984840e+01,   3.42723931e+01,   1.83767109e+01,   1.34843063e+01,   3.29738046e+01, 
              1.81201612e+01,   1.33410092e+01,   3.56008887e+01,   1.91386237e+01,   1.70511893e+01, 
              7.92830815e+00,   1.86818740e+01,   1.71640918e+01,   9.76089002e+00,   1.84271158e+01, 
              1.53165304e+01,   7.82732551e+00,   1.92361063e+01,   3.01247552e+01,   4.26451803e+01, 
              3.98976608e+01,   2.93456092e+01,   4.30806071e+01,   4.15823774e+01,   3.16919546e+01, 
              4.36301223e+01,   3.98195417e+01,   1.22650805e+01,   3.53995338e+01,   4.96218947e+01, 
              1.05516207e+01,   3.56004423e+01,   4.91465202e+01,   1.28715065e+01,   3.71342869e+01, 
              5.01162974e+01,   1.01165203e+01,   2.64116126e+01,   2.09890920e+01,   9.30106636e+00, 
              2.48507501e+01,   2.13437451e+01,   1.19129398e+01,   2.59944915e+01,   2.08781210e+01, 
              4.08861555e+01,   8.12001031e+00,   4.22756677e+01,   3.96616846e+01,   7.10039334e+00, 
              4.14762202e+01,   4.24117552e+01,   8.01121755e+00,   4.12518932e+01,   4.24687391e+01, 
              1.01895543e+01,   8.32248758e+00,   4.32510497e+01,   1.15316314e+01,   9.22186576e+00, 
              4.14244515e+01,   1.08379010e+01,   7.02309724e+00,   4.79438388e+01,   2.79235243e+00, 
              3.91879573e+00,   4.92870959e+01,   2.30678866e+00,   2.76989363e+00,   4.68966296e+01, 
              4.20426711e+00,   3.39213181e+00,   1.20900185e+01,   2.64736959e+01,   1.43233696e+01, 
              1.34510207e+01,   2.72338650e+01,   1.51042142e+01,   1.18637601e+01,   2.49291994e+01, 
              1.52498841e+01,   8.40748778e+00,   1.20585609e+01,   2.96494832e+01,   6.68551790e+00, 
              1.16431196e+01,   2.89441021e+01,   9.31561400e+00,   1.04661113e+01,   2.98071146e+01, 
              1.66608815e+01,   3.14665028e+00,   1.65043310e+01,   1.69771608e+01,   4.85304512e+00, 
              1.71379635e+01,   1.51131172e+01,   2.56432710e+00,   1.72611787e+01,   1.82342577e+01, 
              2.67411464e+01,   4.93406317e+01,   1.95811433e+01,   2.58964653e+01,   5.03539490e+01, 
              1.75759941e+01,   2.78709466e+01,   5.07325369e+01,  -3.60967575e-01,   1.02353422e+01, 
              2.28865541e+01,  -2.06030189e+00,   1.06700028e+01,   2.24234293e+01,  -3.22003957e-02, 
              8.52418437e+00,   2.20487073e+01,   3.25715825e+00,   1.29728266e+01,   1.94192528e+01, 
              1.83709024e+00,   1.24520083e+01,   2.04604640e+01,   4.04041919e+00,   1.13325326e+01, 
              1.91633652e+01,   3.01390617e+00,   1.01596900e+01,   2.65455670e+01,   3.80756346e+00, 
              8.86384823e+00,   2.55285946e+01,   1.46850311e+00,   1.03837461e+01,   2.56518725e+01, 
              3.45040866e+01,   2.69074056e+01,  -1.23584637e+00,   3.40985421e+01,   2.70651704e+01, 
             -3.01976564e+00,   3.31113841e+01,   2.77476536e+01,  -3.78088940e-01,   1.66527454e+01, 
              4.38319779e+01,  -3.49797703e+00,   1.68028133e+01,   4.32488524e+01,  -5.23637738e+00, 
              1.72343793e+01,   4.55269165e+01,  -3.70871614e+00,   2.14507895e+01,   2.35052193e+01, 
              1.09306506e+01,   2.04059003e+01,   2.43994262e+01,   1.21177892e+01,   2.29939565e+01, 
              2.28945424e+01,   1.16237188e+01,   3.96369231e+01,   7.91429750e+00,   3.69901348e+01, 
              3.97347261e+01,   9.46615821e+00,   3.59095967e+01,   3.78846547e+01,   7.70565723e+00, 
              3.71511332e+01,   2.47148733e+00,   9.48194596e+00,   4.65190703e+01,   2.26301962e+00, 
              1.05418108e+01,   4.50384123e+01,   2.93304473e+00,   1.07935400e+01,   4.77012550e+01, 
              1.75895200e+01,   1.98951050e+01,   2.23336386e+01,   1.63931558e+01,   1.85887064e+01, 